  9
step  -3
  O    3.083757   -0.373315    0.019624
  C    1.904775   -0.171317   -0.241182
  O    1.086236    0.550293    0.433015
  H    1.460862   -0.656870   -1.132446
  O   -1.086752    0.554491   -0.430419
  C   -1.904450   -0.173205    0.239588
  O   -3.083594   -0.373585   -0.021515
  H   -1.459569   -0.665714    1.125318
  H    0.000628    0.550568    0.001688
  9
step  -2
  O    3.093120   -0.366380    0.013383
  C    1.912057   -0.173745   -0.234593
  O    1.094558    0.545785    0.443417
  H    1.460169   -0.663111   -1.123431
  O   -1.095074    0.549983   -0.440475
  C   -1.911732   -0.175633    0.232999
  O   -3.092957   -0.366650   -0.015274
  H   -1.458876   -0.671955    1.116649
  H    0.000281    0.545366    0.001688
  9
step  -1
  O    3.102482   -0.359445    0.007141
  C    1.919338   -0.176172   -0.228005
  O    1.102880    0.541278    0.453820
  H    1.459475   -0.669353   -1.114415
  O   -1.103396    0.545476   -0.450530
  C   -1.919013   -0.178060    0.226411
  O   -3.102319   -0.359715   -0.009032
  H   -1.458182   -0.678197    1.107981
  H   -0.000065    0.540165    0.001688
  9
step   0
  O    3.111844   -0.352510    0.000900
  C    1.926620   -0.178599   -0.221417
  O    1.111202    0.536770    0.464222
  H    1.458782   -0.675594   -1.105400
  O   -1.111718    0.540968   -0.460586
  C   -1.926295   -0.180487    0.219823
  O   -3.111681   -0.352780   -0.002791
  H   -1.457489   -0.684438    1.099312
  H   -0.000412    0.534964    0.001688
  9
step   1
  O    3.121206   -0.345575   -0.005341
  C    1.933902   -0.181026   -0.214829
  O    1.119524    0.532262    0.474624
  H    1.458089   -0.681835   -1.096385
  O   -1.120040    0.536460   -0.470642
  C   -1.933577   -0.182914    0.213235
  O   -3.121043   -0.345845    0.003450
  H   -1.456796   -0.690679    1.090643
  H   -0.000759    0.529763    0.001688
  9
step   2
  O    3.130568   -0.338640   -0.011583
  C    1.941183   -0.183453   -0.208241
  O    1.127846    0.527755    0.485027
  H    1.457395   -0.688077   -1.087369
  O   -1.128362    0.531953   -0.480697
  C   -1.940858   -0.185341    0.206647
  O   -3.130405   -0.338910    0.009692
  H   -1.456102   -0.696921    1.081975
  H   -0.001105    0.524562    0.001688
  9
step   3
  O    3.139931   -0.331705   -0.017824
  C    1.948465   -0.185881   -0.201652
  O    1.136168    0.523247    0.495429
  H    1.456702   -0.694318   -1.078354
  O   -1.136684    0.527445   -0.490753
  C   -1.948140   -0.187769    0.200058
  O   -3.139768   -0.331975    0.015933
  H   -1.455409   -0.703162    1.073306
  H   -0.001452    0.519360    0.001688
